#     Step Nr.          Time[fs]        Kin.[a.u.]          Temp[K]            Pot.[a.u.]        Cons Qty[a.u.]        UsedTime[s]
         0            0.000000         0.275037913       300.000000000     -1118.308999227     -1118.033961315         0.000000000
         1            0.500000         0.281771638       307.344869825     -1118.316688870     -1118.034104893        56.645651568
         2            1.000000         0.275845042       300.880383571     -1118.328800481     -1118.034346236        12.152597988
         3            1.500000         0.287048957       313.101151356     -1118.343539282     -1118.034658913        12.058182856
         4            2.000000         0.284644734       310.478724691     -1118.355248024     -1118.034827489        11.325507991
         5            2.500000         0.298113622       325.170030675     -1118.363912706     -1118.034875339        12.829286123
         6            3.000000         0.320250207       349.315703851     -1118.369737478     -1118.034816769        12.880114650
         7            3.500000         0.326607866       356.250376381     -1118.374040634     -1118.034684956        11.270952985
         8            4.000000         0.342446694       373.526715603     -1118.380862336     -1118.034610050        11.276317568
         9            4.500000         0.338489552       369.210428821     -1118.386278846     -1118.034577733        12.880473519
        10            5.000000         0.334374582       364.721989374     -1118.391320019     -1118.034524575        15.785409890
        11            5.500000         0.355260092       387.503041081     -1118.401714439     -1118.034573623        10.541937457
        12            6.000000         0.353754849       385.861183877     -1118.412038046     -1118.034642634        10.497568900
        13            6.500000         0.349491574       381.210979652     -1118.421311152     -1118.034672723        10.478009928
        14            7.000000         0.345947807       377.345585457     -1118.429957623     -1118.034684139         9.746008765
        15            7.500000         0.347975441       379.557244273     -1118.437511658     -1118.034670384         9.751191672
        16            8.000000         0.345166404       376.493262650     -1118.445436286     -1118.034690360         9.896188173
        17            8.500000         0.345008088       376.320578609     -1118.452816369     -1118.034743475         9.736430226
        18            9.000000         0.337044915       367.634677968     -1118.460310363     -1118.034798236         9.741809933
        19            9.500000         0.333170858       363.409016467     -1118.467622364     -1118.034843869         9.725331845
        20           10.000000         0.342115646       373.165622497     -1118.476259724     -1118.034859677        13.405715231
        21           10.500000         0.356364808       388.708019847     -1118.484890165     -1118.034834175         9.718058679
        22           11.000000         0.354481215       386.653474495     -1118.491436127     -1118.034823810         8.968920676
        23           11.500000         0.369905987       403.478178778     -1118.496529456     -1118.034830310         8.974569108
        24           12.000000         0.360355167       393.060539125     -1118.499453460     -1118.034788914         8.930793041
        25           12.500000         0.349233496       380.929479552     -1118.499430478     -1118.034698495         8.922994446
        26           13.000000         0.356079190       388.396480083     -1118.499581510     -1118.034603168         8.963257449
        27           13.500000         0.377781493       412.068455782     -1118.501941321     -1118.034582989         8.953282811
        28           14.000000         0.358459434       390.992751282     -1118.506037391     -1118.034619920         9.038074469
        29           14.500000         0.352624195       384.627913709     -1118.512325197     -1118.034740939         8.933999496
        30           15.000000         0.356568108       388.929771693     -1118.517342629     -1118.034862434        12.760933032
        31           15.500000         0.368516836       401.962950817     -1118.520521465     -1118.034935568         8.942834873
        32           16.000000         0.360255653       392.951993464     -1118.520221349     -1118.034966696         8.926221101
        33           16.500000         0.348151041       379.748781648     -1118.515940154     -1118.034948434         8.941764215
        34           17.000000         0.347533940       379.075674007     -1118.510421251     -1118.034939390         8.908924298
        35           17.500000         0.341522946       372.519129434     -1118.498976097     -1118.034770559         8.948455617
        36           18.000000         0.337644017       368.288153921     -1118.489699942     -1118.034615780         8.963436335
        37           18.500000         0.347446756       378.980576647     -1118.482663525     -1118.034502032         8.919186015
        38           19.000000         0.310265137       338.424402272     -1118.476383150     -1118.034458997         8.944984227
        39           19.500000         0.310322685       338.487173026     -1118.475126422     -1118.034525608         8.934599074
        40           20.000000         0.310406609       338.578713759     -1118.479174102     -1118.034726485        13.310391961
        41           20.500000         0.337607544       368.248370432     -1118.484480080     -1118.034894867         8.954271540
        42           21.000000         0.341008902       371.958431621     -1118.484995672     -1118.034957768         8.932836933
        43           21.500000         0.326115173       355.712967117     -1118.481632750     -1118.034920591         8.933268372
        44           22.000000         0.313188651       341.613250202     -1118.478777355     -1118.034851538         8.916425658
        45           22.500000         0.306780749       334.623775207     -1118.476398621     -1118.034764197         8.906729158
        46           23.000000         0.305669998       333.412213940     -1118.475860902     -1118.034726613         9.737943422
        47           23.500000         0.308095294       336.057627349     -1118.479190365     -1118.034780752         9.777938180
        48           24.000000         0.321728341       350.927991629     -1118.485012537     -1118.034888077         9.715566060
        49           24.500000         0.328307087       358.103816159     -1118.491915822     -1118.034987091         8.945134306
        50           25.000000         0.327084341       356.770095888     -1118.495194841     -1118.034994772        12.854094159
        51           25.500000         0.323204221       352.537820310     -1118.493881059     -1118.034934345         9.705384172
        52           26.000000         0.316631887       345.368990430     -1118.495895380     -1118.035008171        10.559609335
        53           26.500000         0.325260182       354.780378586     -1118.497137895     -1118.035084826        10.537133239
        54           27.000000         0.325248952       354.768128535     -1118.498475681     -1118.035140872        10.494082935
        55           27.500000         0.301652838       329.030461449     -1118.497273883     -1118.035056104        10.507594297
        56           28.000000         0.289288866       315.544351781     -1118.496036009     -1118.034911486        10.503472744
        57           28.500000         0.301133558       328.464052578     -1118.496248292     -1118.034852955        10.508382289
        58           29.000000         0.311022794       339.250822872     -1118.495258759     -1118.034815433         9.719871499
        59           29.500000         0.317445655       346.256614318     -1118.494719532     -1118.034815573         9.705381801
        60           30.000000         0.302794085       330.275286749     -1118.496047362     -1118.034824461        13.170045456
        61           30.500000         0.318164226       347.040401790     -1118.499047711     -1118.034884923         9.696797915
        62           31.000000         0.326158634       355.760372041     -1118.500701772     -1118.034886536         8.923017446
        63           31.500000         0.345430323       376.781135059     -1118.502157911     -1118.034891518         8.915443040
        64           32.000000         0.338139151       368.828225228     -1118.502591882     -1118.034924216         8.955168298
        65           32.500000         0.339830734       370.673334269     -1118.499973273     -1118.034904112         8.960228533
        66           33.000000         0.347865425       379.437243474     -1118.495497918     -1118.034792258         8.948423203
        67           33.500000         0.339421759       370.227241863     -1118.491119754     -1118.034654670         8.135875486
        68           34.000000         0.342834340       373.949543740     -1118.484383915     -1118.034528094         8.095085844
        69           34.500000         0.334100048       364.422538462     -1118.477989374     -1118.034445675         8.090225602
        70           35.000000         0.332779080       362.981681498     -1118.473371625     -1118.034396681        10.966100391
        71           35.500000         0.320814912       349.931661516     -1118.473219966     -1118.034445651         8.170386346
        72           36.000000         0.303586909       331.140066868     -1118.475841300     -1118.034490570         8.111407137
        73           36.500000         0.313477042       341.927815385     -1118.478670078     -1118.034523088         8.143509461
        74           37.000000         0.296571228       323.487651613     -1118.482564316     -1118.034640128         8.126713622
        75           37.500000         0.329761129       359.689825505     -1118.485844744     -1118.034780642         8.110143218
        76           38.000000         0.312098417       340.424068687     -1118.484530224     -1118.034760166         8.108369902
        77           38.500000         0.288503378       314.687574080     -1118.480755191     -1118.034659927         8.121609781
        78           39.000000         0.285933659       311.884630162     -1118.475136500     -1118.034488889         8.178228522
        79           39.500000         0.263985562       287.944552459     -1118.470620606     -1118.034311057         8.119447643
        80           40.000000         0.267928643       292.245501852     -1118.470485385     -1118.034198008        11.149147430
        81           40.500000         0.280202736       305.633576490     -1118.477354492     -1118.034303029         8.125848684
        82           41.000000         0.290150501       316.484187858     -1118.489243417     -1118.034553731         8.120781615
        83           41.500000         0.302092844       329.510402392     -1118.501341454     -1118.034826650         8.127693702
        84           42.000000         0.315394460       344.019256176     -1118.509365254     -1118.034976210         8.104739508
        85           42.500000         0.314177527       342.691875963     -1118.509804784     -1118.034964109         8.154173438
        86           43.000000         0.306389655       334.197186137     -1118.507142726     -1118.034871908         8.112914346
        87           43.500000         0.296554733       323.469659185     -1118.504882290     -1118.034780631         8.190926701
        88           44.000000         0.298082138       325.135689310     -1118.501114738     -1118.034651305         8.132956853
        89           44.500000         0.285927365       311.877765148     -1118.499154614     -1118.034566953         8.139346555
        90           45.000000         0.290717022       317.102125174     -1118.501221961     -1118.034593586        10.957094900
        91           45.500000         0.297790380       324.817452424     -1118.505295176     -1118.034656016         8.173516927
        92           46.000000         0.308215116       336.188323860     -1118.508452776     -1118.034718547         8.154065151
        93           46.500000         0.309665569       337.770418234     -1118.508442710     -1118.034703851         8.146615785
        94           47.000000         0.292639470       319.199052002     -1118.506471691     -1118.034664023         8.145336559
        95           47.500000         0.295630371       322.461403512     -1118.504404989     -1118.034593380         8.191011956
        96           48.000000         0.294873952       321.636333113     -1118.502142360     -1118.034488302         8.155335035
        97           48.500000         0.298967904       326.101846764     -1118.502516606     -1118.034417659         8.189935248
        98           49.000000         0.294294514       321.004305788     -1118.505481380     -1118.034484995         8.128775632
        99           49.500000         0.313046114       341.457777140     -1118.507347749     -1118.034566009         8.149007309
       100           50.000000         0.292265702       318.791361077     -1118.508777828     -1118.034646971        11.265065199
       101           50.500000         0.297758471       324.782647302     -1118.508562599     -1118.034614459         8.177604530
       102           51.000000         0.303288320       330.814378014     -1118.506314827     -1118.034529125         8.172253544
       103           51.500000         0.304467963       332.101083806     -1118.504032629     -1118.034420486         8.124744922
       104           52.000000         0.298330399       325.406482292     -1118.505314169     -1118.034442204         8.140206672
       105           52.500000         0.294950910       321.720275703     -1118.508651400     -1118.034522186         8.155362478
       106           53.000000         0.290563824       316.935022851     -1118.514095589     -1118.034626128         8.135942101
       107           53.500000         0.306738957       334.578190387     -1118.521540155     -1118.034750702         8.209881613
       108           54.000000         0.293031813       319.627003964     -1118.528906020     -1118.034888534         8.464422615
       109           54.500000         0.294719633       321.468008050     -1118.533709134     -1118.034983363         8.145309459
       110           55.000000         0.291628075       318.095863725     -1118.534979516     -1118.034999077        11.176177979
       111           55.500000         0.288615757       314.810152409     -1118.535226613     -1118.034987719         8.177976241
       112           56.000000         0.304853237       332.521324670     -1118.533925271     -1118.034936247         8.150406146
       113           56.500000         0.293475144       320.110570704     -1118.532669108     -1118.034891894         8.121117452
       114           57.000000         0.300773129       328.070911611     -1118.532953180     -1118.034877900         8.166222388
       115           57.500000         0.290552540       316.922714904     -1118.532950066     -1118.034848039         8.151323222
       116           58.000000         0.288768687       314.976961767     -1118.533299016     -1118.034864498         8.133297946
       117           58.500000         0.283950856       309.721870895     -1118.535229351     -1118.034931698         8.122715522
       118           59.000000         0.302206035       329.633866301     -1118.536957133     -1118.034961980         8.129266120
       119           59.500000         0.298856029       325.979817763     -1118.536226879     -1118.034953333         8.153952586
       120           60.000000         0.285979880       311.935045830     -1118.532861094     -1118.034855171        12.228519877
       121           60.500000         0.271232989       295.849746659     -1118.529824635     -1118.034787691         8.168917339
       122           61.000000         0.275519443       300.525233066     -1118.529030167     -1118.034794904         8.140521733
       123           61.500000         0.272846747       297.609967385     -1118.529624924     -1118.034833160         8.128454557
       124           62.000000         0.281939763       307.528253224     -1118.529349949     -1118.034841888         8.940282052
       125           62.500000         0.284666510       310.502476457     -1118.529641179     -1118.034864896         8.134031245
       126           63.000000         0.288366502       314.538274974     -1118.529258538     -1118.034801718         8.963312479
       127           63.500000         0.289784282       316.084731054     -1118.528720513     -1118.034746921         8.952999514
       128           64.000000         0.282776724       308.441175959     -1118.525674395     -1118.034659711         8.975412490
       129           64.500000         0.287035022       313.085951540     -1118.525284509     -1118.034605047         8.954645576
       130           65.000000         0.293783493       320.446904691     -1118.529998815     -1118.034683186        12.563980419
       131           65.500000         0.282445228       308.079593625     -1118.536505534     -1118.034802507         8.912348153
       132           66.000000         0.276828142       301.952708375     -1118.539234716     -1118.034859238         8.965184288
       133           66.500000         0.297915381       324.953797622     -1118.538212205     -1118.034831749         8.918512279
       134           67.000000         0.292440194       318.981690160     -1118.534179183     -1118.034712424         8.972593859
       135           67.500000         0.286186813       312.160760851     -1118.528182804     -1118.034526560         8.990258848
       136           68.000000         0.290238136       316.579776195     -1118.526282924     -1118.034442780         8.953428648
       137           68.500000         0.295778639       322.623127624     -1118.528945857     -1118.034516952         8.939908095
       138           69.000000         0.297538755       324.542989788     -1118.531219179     -1118.034599884         8.938420475
       139           69.500000         0.297454200       324.450761046     -1118.532132896     -1118.034655901         8.977459563
       140           70.000000         0.302222112       329.651401980     -1118.531423177     -1118.034679815        11.722762750
       141           70.500000         0.288582521       314.773900180     -1118.528395047     -1118.034659565         8.939648110
       142           71.000000         0.293411997       320.041692216     -1118.527239872     -1118.034715559         8.935649989
       143           71.500000         0.275557306       300.566532662     -1118.526767839     -1118.034794032         8.974029694
       144           72.000000         0.275011016       299.970662860     -1118.525709354     -1118.034835113         8.934673084
       145           72.500000         0.279423445       304.783557267     -1118.523647281     -1118.034818949         8.967716413
       146           73.000000         0.267708794       292.005700075     -1118.521527885     -1118.034784492         8.964478625
       147           73.500000         0.262860282       286.717142814     -1118.519252475     -1118.034736327         8.922922686
       148           74.000000         0.266847601       291.066346545     -1118.516912099     -1118.034683699         8.983361101
       149           74.500000         0.273210479       298.006710906     -1118.517168708     -1118.034713465         8.933193184
       150           75.000000         0.272228938       296.936086762     -1118.521023647     -1118.034798156        12.263769710
       151           75.500000         0.283188342       308.890152266     -1118.526966777     -1118.034901162         8.930738518
       152           76.000000         0.281403893       306.943748909     -1118.529226696     -1118.034882233         8.961495230
       153           76.500000         0.282804753       308.471748396     -1118.529346647     -1118.034796554         8.971339697
       154           77.000000         0.288827147       315.040727918     -1118.530684884     -1118.034740768         8.959485939
       155           77.500000         0.282008209       307.602911565     -1118.536444084     -1118.034845780         8.937517598
       156           78.000000         0.286725338       312.748160986     -1118.540370384     -1118.034929488         8.156000769
       157           78.500000         0.286251987       312.231848958     -1118.544061302     -1118.035014242         8.948137093
       158           79.000000         0.293117482       319.720447838     -1118.545879198     -1118.035022410         8.157888299
       159           79.500000         0.289954250       316.270124602     -1118.543566591     -1118.034882710         8.153367650
       160           80.000000         0.283638120       309.380751000     -1118.538936195     -1118.034758753        11.947017547
       161           80.500000         0.280276933       305.714507704     -1118.534882562     -1118.034646353         8.168728692
       162           81.000000         0.280542220       306.003870936     -1118.532849017     -1118.034660950         8.128484009
       163           81.500000         0.285158974       311.039635450     -1118.531588410     -1118.034689023         8.165256875
       164           82.000000         0.284693831       310.532277301     -1118.531831695     -1118.034743727         8.173038183
       165           82.500000         0.302929541       330.423036929     -1118.528331514     -1118.034688548         8.170099555
       166           83.000000         0.301148563       328.480420028     -1118.526709926     -1118.034633008         8.152219238
       167           83.500000         0.281200201       306.721569830     -1118.522467658     -1118.034528161         8.149345843
       168           84.000000         0.303198915       330.716858758     -1118.519699675     -1118.034495323         8.164002482
       169           84.500000         0.287754678       313.870922410     -1118.515985615     -1118.034471394         8.153697599
       170           85.000000         0.297067864       324.029361038     -1118.513971249     -1118.034455084        11.135133334
       171           85.500000         0.277770642       302.980748424     -1118.510767100     -1118.034379397         8.147358436
       172           86.000000         0.279415083       304.774437294     -1118.510788215     -1118.034320906         8.157487627
       173           86.500000         0.278206422       303.456078816     -1118.511791212     -1118.034324620         8.184071368
       174           87.000000         0.277270508       302.435222688     -1118.515425155     -1118.034385059         8.140933847
       175           87.500000         0.276170119       301.234963606     -1118.517875128     -1118.034449917         8.149224918
       176           88.000000         0.284089239       309.872813071     -1118.522747855     -1118.034534192         8.126410762
       177           88.500000         0.296239505       323.125821575     -1118.528016475     -1118.034599477         8.168010658
       178           89.000000         0.303736857       331.303623660     -1118.529931387     -1118.034572089         8.153004678
       179           89.500000         0.305154606       332.850045773     -1118.531795979     -1118.034566488         8.145136913
       180           90.000000         0.308818656       336.846639947     -1118.532949305     -1118.034534318        11.987063147
       181           90.500000         0.321780838       350.985252739     -1118.532838355     -1118.034535786         8.136075918
       182           91.000000         0.312703962       341.084571949     -1118.532345780     -1118.034543261         8.187448805
       183           91.500000         0.315510820       344.146176855     -1118.530160072     -1118.034521195         8.135849942
       184           92.000000         0.309282927       337.353047542     -1118.526907170     -1118.034437859         8.157348314
       185           92.500000         0.302861270       330.348569759     -1118.525004121     -1118.034399580         8.159506880
       186           93.000000         0.305334418       333.046176928     -1118.523514822     -1118.034358602         8.158801097
       187           93.500000         0.297974024       325.017763028     -1118.521303561     -1118.034332507         8.156528641
       188           94.000000         0.290199636       316.537782090     -1118.521744028     -1118.034406941         8.130651459
       189           94.500000         0.292007099       318.509288406     -1118.521316870     -1118.034446519         8.165576275
       190           95.000000         0.290524379       316.891997793     -1118.516102493     -1118.034324201        11.415395530
       191           95.500000         0.288664743       314.863583620     -1118.512751049     -1118.034246320         8.144136077
       192           96.000000         0.282554098       308.198344779     -1118.512383043     -1118.034253468         8.155638190
       193           96.500000         0.296932673       323.881900949     -1118.511639360     -1118.034258466         8.140768595
       194           97.000000         0.287583198       313.683878986     -1118.510448505     -1118.034211214         8.158051502
       195           97.500000         0.300168463       327.411366976     -1118.509778824     -1118.034135200         8.125634098
       196           98.000000         0.304326386       331.946658179     -1118.509154131     -1118.034127147         8.144515429
       197           98.500000         0.303403792       330.940330587     -1118.512966640     -1118.034282654         8.163039010
       198           99.000000         0.300802569       328.103023407     -1118.515355444     -1118.034371689         8.137518296
       199           99.500000         0.306167716       333.955104058     -1118.515134653     -1118.034314279         8.187169570
       200          100.000000         0.304943337       332.619602838     -1118.510491305     -1118.034147388        11.511758776
       201          100.500000         0.289648023       315.936105787     -1118.506665293     -1118.033997145         8.154324934
       202          101.000000         0.294366654       321.082993444     -1118.505553729     -1118.033966076         8.124987081
       203          101.500000         0.291612369       318.078732796     -1118.508942861     -1118.034044699         8.056718396
       204          102.000000         0.292326487       318.857663446     -1118.516237651     -1118.034245803         8.177396769
       205          102.500000         0.292428335       318.968755075     -1118.522736311     -1118.034435019         8.136934407
       206          103.000000         0.289063838       315.298900734     -1118.526981277     -1118.034577654         8.160644419
       207          103.500000         0.289382499       315.646482631     -1118.529698105     -1118.034650380         8.127317064
       208          104.000000         0.292514773       319.063037801     -1118.529819895     -1118.034647435         8.158147644
       209          104.500000         0.298915497       326.044683436     -1118.531180316     -1118.034689519         8.175642792
       210          105.000000         0.293957738       320.636964720     -1118.529434545     -1118.034682392        10.882091235
       211          105.500000         0.287148185       313.209384927     -1118.528196281     -1118.034718044         8.166062284
       212          106.000000         0.278438058       303.708738238     -1118.527181526     -1118.034763016         8.144958587
       213          106.500000         0.278199658       303.448701457     -1118.525065755     -1118.034720144         8.152197089
       214          107.000000         0.289863950       316.171629656     -1118.522418847     -1118.034553842         8.127060018
       215          107.500000         0.286978930       313.024768644     -1118.520975580     -1118.034446127         8.151239550
       216          108.000000         0.294451107       321.175111210     -1118.525125863     -1118.034598908         8.154122030
       217          108.500000         0.316321244       345.030153172     -1118.530334149     -1118.034815220         8.150793511
       218          109.000000         0.296370941       323.269186455     -1118.531651558     -1118.034872566         8.177508047
       219          109.500000         0.291040281       317.454722675     -1118.530923291     -1118.034848028         8.129643511
       220          110.000000         0.296047115       322.915970246     -1118.530294531     -1118.034798334        11.328898827
       221          110.500000         0.297689662       324.707593111     -1118.530040656     -1118.034751397         8.143272970
       222          111.000000         0.286426860       312.422593268     -1118.529891399     -1118.034711189         8.151121704
       223          111.500000         0.295344657       322.149758964     -1118.529693238     -1118.034665088         8.165460570
       224          112.000000         0.288228583       314.387838291     -1118.529930337     -1118.034637888         8.145984715
       225          112.500000         0.287238586       313.307990868     -1118.532257444     -1118.034657798         8.187272446
       226          113.000000         0.295004812       321.779069694     -1118.534785351     -1118.034652146         8.157535668
       227          113.500000         0.300187164       327.431765379     -1118.538386288     -1118.034648000         8.201792413