
include ${pot}.lmp
include kalj.lmp
units lj
atom_style atomic

variable dimensions equal 3
variable density equal 1.2
variable fraca equal 0.8

dimension ${dimensions}
dimension 3
read_restart ${prevbasename}.final.lmprestart.${prevsteps}
read_restart equil/kalj_T2_n360_v300_10000_i.final.lmprestart.${prevsteps}
read_restart equil/kalj_T2_n360_v300_10000_i.final.lmprestart.10000
Reading restart file ...
  restart file = 15 Sep 2022, LAMMPS = 15 Sep 2022
  restoring atom style atomic from restart
  orthogonal box = (0 0 0) to (6.6943295 6.6943295 6.6943295)
  1 by 2 by 2 MPI processor grid
  restoring pair style lj/cut from restart
  360 atoms
  read_restart CPU = 0.002 seconds
include ${pot}_particles.lmp
include kalj_particles.lmp
mass * 1.0 #  set mass 1.0 for all types

pair_style lj/cut 2.5
#pair coeffs type1 type2 eps sigma
pair_coeff 1 1 1.0 1.00 2.5
pair_coeff 1 2 1.5 0.80 2.0
pair_coeff 2 2 0.5 0.88 2.2
pair_modify shift yes
reset_timestep 0

print "Setting up annealing run"
Setting up annealing run
dump 1 all atom ${dumptime} ${basename}.lammpstrj
dump 1 all atom 10000 ${basename}.lammpstrj
dump 1 all atom 10000 equil/kalj_T1.5_n360_v300_10000_i.lammpstrj
#dump_modify 1 sort id scale no

restart ${restarttime} ${basename}.restart
restart 10000 ${basename}.restart
restart 10000 equil/kalj_T1.5_n360_v300_10000_i.restart
restart ${steps} ${basename}.final.lmprestart
restart 10000 ${basename}.final.lmprestart
restart 10000 equil/kalj_T1.5_n360_v300_10000_i.final.lmprestart

thermo ${thermotime}
thermo 1000
timestep ${timestep}
timestep 0.002

neighbor 0.5 bin
neigh_modify every 1 delay ${neighborstep} check yes
neigh_modify every 1 delay 20 check yes

velocity all create ${temp} ${id} dist gaussian
velocity all create 1.5 ${id} dist gaussian
velocity all create 1.5 i dist gaussian
ERROR: Expected integer parameter instead of 'i' in input script or data file (src/velocity.cpp:130)
Last command: velocity all create ${temp} ${id} dist gaussian
